{
  "name": "Cyclohexane",
  "formula": "C6H12",
  "atoms": [
    {"index": 0, "element": "C"},
    {"index": 1, "element": "C"},
    {"index": 2, "element": "C"},
    {"index": 3, "element": "C"},
    {"index": 4, "element": "C"},
    {"index": 5, "element": "C"},
    {"index": 6, "element": "H"},
    {"index": 7, "element": "H"},
    {"index": 8, "element": "H"},
    {"index": 9, "element": "H"},
    {"index": 10, "element": "H"},
    {"index": 11, "element": "H"},
    {"index": 12, "element": "H"},
    {"index": 13, "element": "H"},
    {"index": 14, "element": "H"},
    {"index": 15, "element": "H"},
    {"index": 16, "element": "H"},
    {"index": 17, "element": "H"}
  ],
  "bonds": [
    [0, 1, 1],
    [1, 2, 1],
    [2, 3, 1],
    [3, 4, 1],
    [4, 5, 1],
    [5, 0, 1],
    [0, 6, 1],
    [0, 7, 1],
    [1, 8, 1],
    [1, 9, 1],
    [2, 10, 1],
    [2, 11, 1],
    [3, 12, 1],
    [3, 13, 1],
    [4, 14, 1],
    [4, 15, 1],
    [5, 16, 1],
    [5, 17, 1]
  ],
  "energies": {
    "actual_bond_energy": 7039,
    "uncertainty": 1,
    "comment": "Saturated 6-membered ring in chair conformation. Shows +7.2 ± 1 kJ/mol violation - MINIMAL, confirming chair conformation has negligible strain as expected. Tests whether cycles amplify correlation WITHOUT π-conjugation. Answer: Geometric cycles alone show WEAK amplification compared to electronic conjugation (benzene: +148 kJ/mol is 20× larger). Calculated from NIST: ΔHf = -123.1 ± 0.79 kJ/mol → BDE = (6×716.68 + 12×218.0) - (-123.1) = 7039 kJ/mol. CORRECTED from previous value (7055, +23 kJ/mol) which overestimated by 220% (+16 kJ/mol error).",
    "source": "Prosen et al., J. Res. NBS 1946, 37:51-56; NIST Chemistry WebBook",
    "source_type": "experimental",
    "method": "Combustion calorimetry",
    "heat_of_formation": -123.1,
    "heat_of_formation_uncertainty": 0.79,
    "heat_of_formation_units": "kJ/mol",
    "geometric_correlation": 7.2,
    "geometric_correlation_uncertainty": 1,
    "confidence": 0.95,
    "confidence_note": "NIST-verified experimental value. Minimal violation confirms geometric cycles alone provide weak amplification. Electronic conjugation is necessary for strong feedback effects."
  },
  "reference_energies": {
    "C-C_single": 346,
    "C-H": 413,
    "comment": "Standard bond energies (kJ/mol) for naive calculation. Naive = 6(C-C) + 12(C-H) = 6(346) + 12(413) = 7032 kJ/mol"
  },
  "notes": [
    "Cyclohexane is saturated (no π-electrons, no conjugation)",
    "Chair conformation minimizes angle and torsional strain",
    "Still forms a CYCLE - geometric constraints create correlation",
    "NIST-verified violation: +7.2 ± 1 kJ/mol - MINIMAL as expected for chair conformation",
    "Tests: Can geometric cycles alone amplify additivity violations? Answer: WEAKLY",
    "Compare to benzene (+148, electronic + geometric) - 20× stronger!",
    "Compare to hexatriene (+74, acyclic electronic) - 10× stronger!",
    "Compare to butadiene (+38, acyclic electronic) - 5× stronger!",
    "Conclusion: π-conjugation is NECESSARY for strong feedback amplification",
    "Geometric cycles alone show minimal effect (+7 kJ/mol)",
    "This distinguishes geometric vs electronic contributions clearly",
    "Electronic correlation (π-electrons) >> Geometric correlation (ring constraints)"
  ]
}
